 +-------------------------------------------------+
 |                                                 |
 |      CCC   AA    SSS  TTTTT  EEEEE  PPPP        |
 |     C     A  A  S       T    E      P   P       |
 |     C     AAAA   SS     T    EEE    PPPP        |
 |     C     A  A     S    T    E      P           |
 |      CCC  A  A  SSS     T    EEEEE  P           |
 |                                                 |
 +-------------------------------------------------+
 |                                                 |
 | Welcome to Academic Release CASTEP version 16.11|          
 | Ab Initio Total Energy Program                  |
 |                                                 |
 | Authors:                                        |
 | M. Segall, M. Probert, C. Pickard, P. Hasnip,   |
 | S. Clark, K. Refson, J. R. Yates, M. Payne      |
 |                                                 |
 | Contributors:                                   |
 | P. Lindan, P. Haynes, J. White, V. Milman,      |
 | N. Govind, M. Gibson, P. Tulip, V. Cocula,      |
 | B. Montanari, D. Quigley, M. Glover,            |
 | L. Bernasconi, A. Perlov, M. Plummer,           |
 | E. McNellis, J. Meyer, J. Gale, D. Jochym       |
 | J. Aarons, B. Walker, R. Gillen, D. Jones       |
 | T. Green, I. J. Bush, C. J. Armstrong,          |
 | E. J. Higgins, E. L. Brown, M. S. McFly         |
 |                                                 |
 | Copyright (c) 2000 - 2015                       |
 |                                                 |
 |     Distributed under the terms of an           |
 |     Agreement between the United Kingdom        |
 |     Car-Parrinello (UKCP) Consortium,           |
 |     Daresbury Laboratory and Accelrys, Inc.     |
 |                                                 |
 | Please cite                                     |
 |                                                 |
 |     "First principles methods using CASTEP"     |
 |                                                 |
 |         Zeitschrift fuer Kristallographie       |
 |           220(5-6) pp. 567-570 (2005)           |
 |                                                 |
 | S. J. Clark, M. D. Segall, C. J. Pickard,       |
 | P. J. Hasnip, M. J. Probert, K. Refson,         |
 | M. C. Payne                                     |
 |                                                 |
 |       in all publications arising from          |
 |              your use of CASTEP                 |
 |                                                 |
 +-------------------------------------------------+
 
 
 Compiled for linux_x86_64_ifort14 on Wed, 16 Mar 2016 15:52:45 +0000
 from code version 
 203e84763863+ Castep161_branch Fri, 04 Mar 2016 19:21:07 +0000
 Compiler: Intel Fortran 14.0.2.144; Optimisation: fast
 MATHLIBS: Intel MKL(11.3.2) (LAPACK version 3.5.0)
 FFT Lib : fftw3 version fftw-3.3.3-sse2-avx
 Fundamental constants values: CODATA 2010
 
 Run started: Wed, 30 Mar 2016 12:36:19 +0100
 +-------------------------------------------------+
 |                                                 |
 |  D D D D    F F F F F  P P P P     T T T T T    |
 |  D       D  F          P       P       T        |
 |  D       D  F F F F    P P P P         T        |
 |  D       D  F          P               T        |
 |  D D D D    F          P               T        |
 |                                                 |
 +-------------------------------------------------+
 |                                                 |
 | Welcome to Castep Linear Response (DFPT)        |
 |                                                 |
 | Copyright (c) 2006 - 2015                       |
 |                                                 |
 | Please cite the following publications in all   |
 | work arising from your use of CASTEP LR.        |
 |                                                 |
 | K. Refson, S. J. Clark and P. R. Tulip          |
 | Variational density functional perturbation     |
 | theory for dielectrics and lattice dynamics     |
 | Phys. Rev. B 73(15), 155114 (2006)              |
 +-------------------------------------------------+
 
 
 Pseudo atomic calculation performed for O 2s2 2p4
 
 Converged in 38 iterations to a total energy of -422.6994 eV
 
 
 Pseudo atomic calculation performed for Si 3s2 3p2
 
 Converged in 25 iterations to a total energy of -101.9153 eV
 
 Calculation parallelised over 12 processes.
 Data is distributed by G-vector(12-way)

 ************************************ Title ************************************
 

 ***************************** General Parameters ******************************
  
 output verbosity                               : normal  (1)
 write checkpoint data to                       : Quartz.check
 type of calculation                            : Phonon followed by E-field
 stress calculation                             : off
 density difference calculation                 : off
 electron localisation func (ELF) calculation   : off
 Hirshfeld analysis                             : off
 unlimited duration calculation
 timing information                             : on
 memory usage estimate                          : on
 write final potential to formatted file        : off
 write final density to formatted file          : off
 write BibTeX reference list                    : on
 write OTFG pseudopotential files               : on
 checkpoint writing                             : both castep_bin and check files
 random number generator seed                   : randomised (123619185)

 *********************** Exchange-Correlation Parameters ***********************
  
 using functional                               : Local Density Approximation
 DFT+D: Semi-empirical dispersion correction    : off

 ************************* Pseudopotential Parameters **************************
  
 pseudopotential representation                 : reciprocal space
 <beta|phi> representation                      : reciprocal space
 spin-orbit coupling                            : off

 **************************** Basis Set Parameters *****************************
  
 basis set accuracy                             : FINE
 finite basis set correction                    : none

 **************************** Electronic Parameters ****************************
  
 number of  electrons                           :  48.00    
 net charge of system                           :  0.000    
 treating system as non-spin-polarized
 number of bands                                :         24

 ********************* Electronic Minimization Parameters **********************
  
 Method: Treating system as non-metallic,
         and number of  SD  steps               :          1
         and number of  CG  steps               :          4
  
 total energy / atom convergence tol.           : 0.2219E-09   eV
 max force / atom convergence tol.              : ignored
 periodic dipole correction                     : NONE

 *********************** Population Analysis Parameters ************************
  
 Population analysis with cutoff                :  3.000       A

 ****************************** Phonon Parameters ******************************
  
 phonon calculation method                      : linear response
 phonon convergence tolerance                   : 0.1000E-04   eV/A**2
 preconditioning scheme                         : TPA     
 fine phonon calculation method                 : interpolation
 non-periodic force constant method             : Weighted cumulant sum
 acoustic phonon sum rule                       : correct D(q) in recip-space
 Born effective charges                         : calculated
 Born charge sum rule                           : explicitly enforced
 Raman intensities                              : not calculated
 phonon k-points                                : use reduced set
 phonon DOS                                     : not calculated
 no timed backups

 ***************************** E-Field Parameters ******************************
  
 E-field convergence tolerance                  : 0.1000E-04   A**3
 band convergence tolerance                     : 0.1000E-08   eV

 *******************************************************************************
  
 
                           -------------------------------
                                      Unit Cell
                           -------------------------------
        Real Lattice(A)                      Reciprocal Lattice(1/A)
   2.4240724  -4.1986165   0.0000000        1.2959979  -0.7482447   0.0000000
   2.4240724   4.1986165   0.0000000        1.2959979   0.7482447   0.0000000
   0.0000000   0.0000000   5.3496032        0.0000000   0.0000000   1.1745143
 
                       Lattice parameters(A)       Cell Angles
                    a =    4.848145          alpha =   90.000000
                    b =    4.848145          beta  =   90.000000
                    c =    5.349603          gamma =  120.000000
 
                       Current cell volume =  108.893850       A**3
 
                           -------------------------------
                                     Cell Contents
                           -------------------------------
                         Total number of ions in cell =    9
                      Total number of species in cell =    2
                        Max number of any one species =    6
 
            xxxxxxxxxxxxxxxxxxxxxxxxxxxxxxxxxxxxxxxxxxxxxxxxxxxxxxxxxxxx
            x  Element    Atom        Fractional coordinates of atoms  x
            x            Number           u          v          w      x
            x----------------------------------------------------------x
            x  O            1         0.135406   0.411595   0.112470   x 
            x  O            2        -0.411595  -0.276189   0.779137   x 
            x  O            3         0.276189  -0.135406   0.445804   x 
            x  O            4         0.411595   0.135406  -0.112470   x 
            x  O            5        -0.276189  -0.411595   0.220863   x 
            x  O            6        -0.135406   0.276189   0.554196   x 
            x  Si           1         0.464396   0.464396   0.000000   x 
            x  Si           2        -0.464396   0.000000   0.666667   x 
            x  Si           3         0.000000  -0.464396   0.333333   x 
            xxxxxxxxxxxxxxxxxxxxxxxxxxxxxxxxxxxxxxxxxxxxxxxxxxxxxxxxxxxx
 
 
                         No user defined ionic velocities
 
                           -------------------------------
                                   Details of Species
                           -------------------------------
 
                               Mass of species in AMU
                                    O   15.9994000
                                    Si   28.0855000
 
                          Electric Quadrupole Moment (Barn)
                                    O   -0.0255800 Isotope 17
                                    Si    1.0000000 No Isotope Defined
 
                          Files used for pseudopotentials:
                                    O O_00_OP.recpot
                                    Si Si_00_OP.recpot
 
                           -------------------------------
                              k-Points For BZ Sampling
                           -------------------------------
                       MP grid size for SCF calculation is  3  3  3
                            with an offset of   0.000  0.000  0.000
                       Number of kpoints used =             7
 
                           -------------------------------
                               Symmetry and Constraints
                           -------------------------------
 
                      Maximum deviation from symmetry = 0.296963E-14     ANG
 
                      Number of symmetry operations   =           6
                      Number of ionic constraints     =           3
                      Point group of crystal =    19: D3, 32, 3 2
                      Space group of crystal =   154: P3_221, P 32 2"
 
             Set iprint > 1 for details on symmetry rotations/translations
 
                         Centre of mass is constrained
             Set iprint > 1 for details of linear ionic constraints
 
                         Number of cell constraints= 4
                         Cell constraints are:  1 1 3 0 0 0
 
                         External pressure/stress (GPa)
                          0.00000   0.00000   0.00000
                                    0.00000   0.00000
                                              0.00000
  
+---------------- MEMORY AND SCRATCH DISK ESTIMATES PER PROCESS --------------+
|                                                     Memory          Disk    |
| Baseline code, static data and system overhead      383.0 MB         0.0 MB |
| BLAS internal memory storage                          0.0 MB         0.0 MB |
| Model and support data                                5.9 MB         0.0 MB |
| Electronic energy minimisation requirements           6.6 MB         0.0 MB |
| Force calculation requirements                        0.7 MB         0.0 MB |
|                                               ----------------------------- |
| Approx. total storage required per process          395.5 MB         0.0 MB |
|                                                                             |
| Requirements will fluctuate during execution and may exceed these estimates |
+-----------------------------------------------------------------------------+
------------------------------------------------------------------------ <-- SCF
SCF loop      Energy                           Energy gain       Timer   <-- SCF
                                               per atom          (sec)   <-- SCF
------------------------------------------------------------------------ <-- SCF
Initial   3.77548479E+002                                          4.50  <-- SCF
      1  -2.83479383E+003                    3.56926924E+002       6.44  <-- SCF
      2  -2.90603008E+003                    7.91513864E+000       8.32  <-- SCF
      3  -2.91947296E+003                    1.49365341E+000      10.16  <-- SCF
      4  -2.92115246E+003                    1.86611122E-001      11.98  <-- SCF
      5  -2.92116058E+003                    9.02042857E-004      13.80  <-- SCF
      6  -2.92116063E+003                    5.80416175E-006      15.63  <-- SCF
      7  -2.92116063E+003                    5.27341761E-008      17.44  <-- SCF
      8  -2.92116063E+003                    5.90099683E-010      19.24  <-- SCF
      9  -2.92116063E+003                    7.30427743E-012      21.03  <-- SCF
     10  -2.92116063E+003                    1.28899013E-013      23.44  <-- SCF
------------------------------------------------------------------------ <-- SCF
 
Final energy =  -2921.160633901     eV
(energy not corrected for finite basis set)
 

Writing analysis data to Quartz.castep_bin

Writing model to Quartz.check

 Efield perturbation    1:  X                                            24.88s
  Parallel strategy changed for perturbation using 10 k-points
  Data is distributed by G-vector(1-way) and k-point(10-way) and band(1-way)
  +---------------- MEMORY AND SCRATCH DISK ESTIMATES PER PROCESS --------------+
  |                                                     Memory          Disk    |
  | Baseline code, static data and system overhead      383.0 MB         0.0 MB |
  | BLAS internal memory storage                          0.0 MB         0.0 MB |
  | Model and support data                                6.1 MB         0.0 MB |
  | DFPT E-field response requirements                   22.0 MB         0.0 MB |
  |                                               ----------------------------- |
  | Approx. total storage required per process          411.1 MB         0.0 MB |
  |                                                                             |
  | Requirements will fluctuate during execution and may exceed these estimates |
  +-----------------------------------------------------------------------------+

 Efield perturbation    2:  Z                                            48.00s
  Parallel strategy changed for perturbation using 8 k-points
  Data is distributed by G-vector(1-way) and k-point(8-way) and band(1-way)
 Perturbation    1 (of    6): O     1 X at q=( 0.000, 0.000, 0.000):     74.95s
  Parallel strategy changed for perturbation using 14 k-points
  Data is distributed by G-vector(6-way) and k-point(2-way) and band(1-way)
  +---------------- MEMORY AND SCRATCH DISK ESTIMATES PER PROCESS --------------+
  |                                                     Memory          Disk    |
  | Baseline code, static data and system overhead      383.0 MB         0.0 MB |
  | BLAS internal memory storage                          0.0 MB         0.0 MB |
  | Model and support data                                6.1 MB         0.0 MB |
  | DFPT phonon calculation requirements                 24.1 MB         0.0 MB |
  |                                               ----------------------------- |
  | Approx. total storage required per process          413.2 MB         0.0 MB |
  |                                                                             |
  | Requirements will fluctuate during execution and may exceed these estimates |
  +-----------------------------------------------------------------------------+
 Perturbation    2 (of    6): Si    1 X at q=( 0.000, 0.000, 0.000):    109.03s
  Parallel strategy changed for perturbation using 10 k-points
  Data is distributed by G-vector(1-way) and k-point(10-way) and band(1-way)
  +---------------- MEMORY AND SCRATCH DISK ESTIMATES PER PROCESS --------------+
  |                                                     Memory          Disk    |
  | Baseline code, static data and system overhead      383.0 MB         0.0 MB |
  | BLAS internal memory storage                          0.0 MB         0.0 MB |
  | Model and support data                                6.1 MB         0.0 MB |
  | DFPT phonon calculation requirements                 27.7 MB         0.0 MB |
  |                                               ----------------------------- |
  | Approx. total storage required per process          416.8 MB         0.0 MB |
  |                                                                             |
  | Requirements will fluctuate during execution and may exceed these estimates |
  +-----------------------------------------------------------------------------+
 Perturbation    3 (of    6): O     1 Y at q=( 0.000, 0.000, 0.000):    133.14s
  Parallel strategy changed for perturbation using 14 k-points
  Data is distributed by G-vector(6-way) and k-point(2-way) and band(1-way)
 Perturbation    4 (of    6): Si    1 Y at q=( 0.000, 0.000, 0.000):    166.97s
 Perturbation    5 (of    6): O     1 Z at q=( 0.000, 0.000, 0.000):    197.11s
 Perturbation    6 (of    6): Si    1 Z at q=( 0.000, 0.000, 0.000):    230.82s

 Phonon calculation: q-point   1 (of    7) (-0.333,-0.333, 0.000):      261.18s
 -------------------------------------------------------------------------------
 Perturbation    1 (of    6): O     1 X at q=(-0.333,-0.333, 0.000):    261.21s
  Parallel strategy changed for perturbation using 27 k-points
  Data is distributed by G-vector(1-way) and k-point(9-way) and band(1-way)
  +---------------- MEMORY AND SCRATCH DISK ESTIMATES PER PROCESS --------------+
  |                                                     Memory          Disk    |
  | Baseline code, static data and system overhead      383.0 MB         0.0 MB |
  | BLAS internal memory storage                          0.0 MB         0.0 MB |
  | Model and support data                                6.1 MB         0.0 MB |
  | DFPT phonon calculation requirements                 65.5 MB         0.0 MB |
  |                                               ----------------------------- |
  | Approx. total storage required per process          454.6 MB         0.0 MB |
  |                                                                             |
  | Requirements will fluctuate during execution and may exceed these estimates |
  +-----------------------------------------------------------------------------+
 Perturbation    2 (of    6): Si    1 X at q=(-0.333,-0.333, 0.000):    323.77s
  Parallel strategy changed for perturbation using 15 k-points
  Data is distributed by G-vector(2-way) and k-point(5-way) and band(1-way)
 Perturbation    3 (of    6): O     1 Y at q=(-0.333,-0.333, 0.000):    363.90s
  Parallel strategy changed for perturbation using 27 k-points
  Data is distributed by G-vector(1-way) and k-point(9-way) and band(1-way)
 Perturbation    4 (of    6): Si    1 Y at q=(-0.333,-0.333, 0.000):    420.58s
 Perturbation    5 (of    6): O     1 Z at q=(-0.333,-0.333, 0.000):    463.13s
 Perturbation    6 (of    6): Si    1 Z at q=(-0.333,-0.333, 0.000):    510.94s

 Phonon calculation: q-point   2 (of    7) (-0.333, 0.000,-0.333):      553.43s
 -------------------------------------------------------------------------------
 Perturbation    1 (of   23): O     1 X at q=(-0.333, 0.000,-0.333):    553.45s
  Parallel strategy changed for perturbation using 27 k-points
  Data is distributed by G-vector(1-way) and k-point(9-way) and band(1-way)
 Perturbation    2 (of   23): O     2 X at q=(-0.333, 0.000,-0.333):    608.78s
 Perturbation    3 (of   23): O     3 X at q=(-0.333, 0.000,-0.333):    655.57s
 Perturbation    4 (of   23): O     4 X at q=(-0.333, 0.000,-0.333):    702.83s
 Perturbation    5 (of   23): O     5 X at q=(-0.333, 0.000,-0.333):    747.23s
 Perturbation    6 (of   23): O     6 X at q=(-0.333, 0.000,-0.333):    794.40s
 Perturbation    7 (of   23): Si    1 X at q=(-0.333, 0.000,-0.333):    841.24s
 Perturbation    8 (of   23): Si    2 X at q=(-0.333, 0.000,-0.333):    880.77s
 Perturbation    9 (of   23): Si    3 X at q=(-0.333, 0.000,-0.333):    922.28s
 Perturbation   10 (of   23): O     1 Y at q=(-0.333, 0.000,-0.333):    965.95s
 Perturbation   11 (of   23): O     2 Y at q=(-0.333, 0.000,-0.333):   1013.63s
 Perturbation   12 (of   23): O     3 Y at q=(-0.333, 0.000,-0.333):   1061.43s
 Perturbation   13 (of   23): O     4 Y at q=(-0.333, 0.000,-0.333):   1105.94s
 Perturbation   14 (of   23): O     5 Y at q=(-0.333, 0.000,-0.333):   1152.86s
 Perturbation   15 (of   23): O     6 Y at q=(-0.333, 0.000,-0.333):   1200.69s
 Perturbation   16 (of   23): Si    1 Y at q=(-0.333, 0.000,-0.333):   1246.55s
 Perturbation   17 (of   23): Si    2 Y at q=(-0.333, 0.000,-0.333):   1288.19s
 Perturbation   18 (of   23): Si    3 Y at q=(-0.333, 0.000,-0.333):   1330.30s
 Perturbation   19 (of   23): O     1 Z at q=(-0.333, 0.000,-0.333):   1370.99s
 Perturbation   20 (of   23): O     2 Z at q=(-0.333, 0.000,-0.333):   1416.05s
 Perturbation   21 (of   23): O     3 Z at q=(-0.333, 0.000,-0.333):   1463.26s
 Perturbation   22 (of   23): Si    1 Z at q=(-0.333, 0.000,-0.333):   1509.39s
 Perturbation   23 (of   23): Si    3 Z at q=(-0.333, 0.000,-0.333):   1551.55s

 Phonon calculation: q-point   3 (of    7) (-0.333, 0.000, 0.000):     1593.07s
 -------------------------------------------------------------------------------
 Perturbation    1 (of   23): O     1 X at q=(-0.333, 0.000, 0.000):   1593.09s
  Parallel strategy changed for perturbation using 27 k-points
  Data is distributed by G-vector(1-way) and k-point(9-way) and band(1-way)
 Perturbation    2 (of   23): O     2 X at q=(-0.333, 0.000, 0.000):   1651.56s
 Perturbation    3 (of   23): O     3 X at q=(-0.333, 0.000, 0.000):   1698.46s
 Perturbation    4 (of   23): O     4 X at q=(-0.333, 0.000, 0.000):   1745.75s
 Perturbation    5 (of   23): O     5 X at q=(-0.333, 0.000, 0.000):   1793.35s
 Perturbation    6 (of   23): O     6 X at q=(-0.333, 0.000, 0.000):   1841.91s
 Perturbation    7 (of   23): Si    1 X at q=(-0.333, 0.000, 0.000):   1890.15s
 Perturbation    8 (of   23): Si    2 X at q=(-0.333, 0.000, 0.000):   1931.53s
 Perturbation    9 (of   23): Si    3 X at q=(-0.333, 0.000, 0.000):   1974.67s
 Perturbation   10 (of   23): O     1 Y at q=(-0.333, 0.000, 0.000):   2016.71s
 Perturbation   11 (of   23): O     2 Y at q=(-0.333, 0.000, 0.000):   2061.07s
 Perturbation   12 (of   23): O     3 Y at q=(-0.333, 0.000, 0.000):   2107.26s
 Perturbation   13 (of   23): O     4 Y at q=(-0.333, 0.000, 0.000):   2152.04s
 Perturbation   14 (of   23): O     5 Y at q=(-0.333, 0.000, 0.000):   2199.05s
 Perturbation   15 (of   23): O     6 Y at q=(-0.333, 0.000, 0.000):   2246.03s
 Perturbation   16 (of   23): Si    1 Y at q=(-0.333, 0.000, 0.000):   2290.72s
 Perturbation   17 (of   23): Si    2 Y at q=(-0.333, 0.000, 0.000):   2333.11s
 Perturbation   18 (of   23): Si    3 Y at q=(-0.333, 0.000, 0.000):   2374.47s
 Perturbation   19 (of   23): O     1 Z at q=(-0.333, 0.000, 0.000):   2416.53s
 Perturbation   20 (of   23): O     2 Z at q=(-0.333, 0.000, 0.000):   2462.88s
 Perturbation   21 (of   23): O     3 Z at q=(-0.333, 0.000, 0.000):   2509.03s
 Perturbation   22 (of   23): Si    1 Z at q=(-0.333, 0.000, 0.000):   2554.51s
 Perturbation   23 (of   23): Si    3 Z at q=(-0.333, 0.000, 0.000):   2596.05s

 Phonon calculation: q-point   4 (of    7) ( 0.000, 0.000,-0.333):     2636.09s
 -------------------------------------------------------------------------------
 Perturbation    1 (of    8): O     1 X at q=( 0.000, 0.000,-0.333):   2636.11s
  Parallel strategy changed for perturbation using 27 k-points
  Data is distributed by G-vector(1-way) and k-point(9-way) and band(1-way)
 Perturbation    2 (of    8): O     5 X at q=( 0.000, 0.000,-0.333):   2691.64s
 Perturbation    3 (of    8): Si    1 X at q=( 0.000, 0.000,-0.333):   2737.76s
 Perturbation    4 (of    8): O     1 Y at q=( 0.000, 0.000,-0.333):   2780.04s
 Perturbation    5 (of    8): O     5 Y at q=( 0.000, 0.000,-0.333):   2827.18s
 Perturbation    6 (of    8): Si    1 Y at q=( 0.000, 0.000,-0.333):   2872.48s
 Perturbation    7 (of    8): O     1 Z at q=( 0.000, 0.000,-0.333):   2914.17s
 Perturbation    8 (of    8): Si    1 Z at q=( 0.000, 0.000,-0.333):   2959.08s

 Phonon calculation: q-point   5 (of    7) ( 0.000, 0.000, 0.000):     3000.51s
 -------------------------------------------------------------------------------

 Phonon calculation: q-point   6 (of    7) ( 0.333, 0.000,-0.333):     3000.51s
 -------------------------------------------------------------------------------
 Perturbation    1 (of   23): O     1 X at q=( 0.333, 0.000,-0.333):   3000.54s
  Parallel strategy changed for perturbation using 27 k-points
  Data is distributed by G-vector(1-way) and k-point(9-way) and band(1-way)
 Perturbation    2 (of   23): O     2 X at q=( 0.333, 0.000,-0.333):   3062.92s
 Perturbation    3 (of   23): O     3 X at q=( 0.333, 0.000,-0.333):   3111.65s
 Perturbation    4 (of   23): O     4 X at q=( 0.333, 0.000,-0.333):   3156.10s
 Perturbation    5 (of   23): O     5 X at q=( 0.333, 0.000,-0.333):   3202.31s
 Perturbation    6 (of   23): O     6 X at q=( 0.333, 0.000,-0.333):   3247.27s
 Perturbation    7 (of   23): Si    1 X at q=( 0.333, 0.000,-0.333):   3293.36s
 Perturbation    8 (of   23): Si    2 X at q=( 0.333, 0.000,-0.333):   3335.84s
 Perturbation    9 (of   23): Si    3 X at q=( 0.333, 0.000,-0.333):   3377.52s
 Perturbation   10 (of   23): O     1 Y at q=( 0.333, 0.000,-0.333):   3418.74s
 Perturbation   11 (of   23): O     2 Y at q=( 0.333, 0.000,-0.333):   3465.53s
 Perturbation   12 (of   23): O     3 Y at q=( 0.333, 0.000,-0.333):   3513.17s
 Perturbation   13 (of   23): O     4 Y at q=( 0.333, 0.000,-0.333):   3557.47s
 Perturbation   14 (of   23): O     5 Y at q=( 0.333, 0.000,-0.333):   3603.47s
 Perturbation   15 (of   23): O     6 Y at q=( 0.333, 0.000,-0.333):   3647.36s
 Perturbation   16 (of   23): Si    1 Y at q=( 0.333, 0.000,-0.333):   3692.15s
 Perturbation   17 (of   23): Si    2 Y at q=( 0.333, 0.000,-0.333):   3734.24s
 Perturbation   18 (of   23): Si    3 Y at q=( 0.333, 0.000,-0.333):   3776.11s
 Perturbation   19 (of   23): O     1 Z at q=( 0.333, 0.000,-0.333):   3817.17s
 Perturbation   20 (of   23): O     2 Z at q=( 0.333, 0.000,-0.333):   3863.86s
 Perturbation   21 (of   23): O     3 Z at q=( 0.333, 0.000,-0.333):   3910.05s
 Perturbation   22 (of   23): Si    1 Z at q=( 0.333, 0.000,-0.333):   3955.91s
 Perturbation   23 (of   23): Si    3 Z at q=( 0.333, 0.000,-0.333):   3997.36s

 Phonon calculation: q-point   7 (of    7) ( 0.333, 0.333,-0.333):     4038.65s
 -------------------------------------------------------------------------------
 Perturbation    1 (of    9): O     1 X at q=( 0.333, 0.333,-0.333):   4038.67s
  Parallel strategy changed for perturbation using 27 k-points
  Data is distributed by G-vector(1-way) and k-point(9-way) and band(1-way)
 Perturbation    2 (of    9): O     4 X at q=( 0.333, 0.333,-0.333):   4092.16s
 Perturbation    3 (of    9): Si    1 X at q=( 0.333, 0.333,-0.333):   4138.69s
 Perturbation    4 (of    9): O     1 Y at q=( 0.333, 0.333,-0.333):   4181.74s
 Perturbation    5 (of    9): O     4 Y at q=( 0.333, 0.333,-0.333):   4228.65s
 Perturbation    6 (of    9): Si    1 Y at q=( 0.333, 0.333,-0.333):   4275.81s
 Perturbation    7 (of    9): O     1 Z at q=( 0.333, 0.333,-0.333):   4318.16s
 Perturbation    8 (of    9): O     4 Z at q=( 0.333, 0.333,-0.333):   4364.55s
 Perturbation    9 (of    9): Si    1 Z at q=( 0.333, 0.333,-0.333):   4410.10s
 
 ==============================================================================
 +                           Vibrational Frequencies                          +
 +                           -----------------------                          +
 +                                                                            +
 + Performing frequency calculation at  471 wavevectors (q-pts)               +
 + ========================================================================== +
 +                                                                            +
 + -------------------------------------------------------------------------- +
 +  q-pt=    1 (  0.000000  0.000000  0.000000)     0.0021231423              +
 +  q->0 along (  0.000000  0.000000  0.008475)                               +
 + -------------------------------------------------------------------------- +
 +  Acoustic sum rule correction <  21.223011 cm-1 applied                    +
 +     N      Frequency irrep.    ir intensity active            raman active + 
 +                (cm-1)         ((D/A)**2/amu)                               + 
 +                                                                            +
 +     1      -0.027377   a          0.0000000  N                       N     + 
 +     2      -0.027377   a          0.0000000  N                       N     + 
 +     3       0.315793   b          0.0000000  N                       N     + 
 +     4     130.349798   a          0.0046085  Y                       Y     + 
 +     5     130.349798   a          0.0046085  Y                       Y     + 
 +     6     225.250810   c          0.0000000  N                       Y     + 
 +     7     257.668284   a          0.2493089  Y                       Y     + 
 +     8     257.668284   a          0.2493089  Y                       Y     + 
 +     9     341.230738   c          0.0000000  N                       Y     + 
 +    10     370.097196   b          1.0140553  Y                       N     + 
 +    11     378.913961   a          3.1593709  Y                       Y     + 
 +    12     378.913961   a          3.1593709  Y                       Y     + 
 +    13     441.474723   a          8.1242847  Y                       Y     + 
 +    14     441.474723   a          8.1242847  Y                       Y     + 
 +    15     458.816887   c          0.0000000  N                       Y     + 
 +    16     539.113335   b          4.7480952  Y                       N     + 
 +    17     694.566121   a          0.7891508  Y                       Y     + 
 +    18     694.566121   a          0.7891508  Y                       Y     + 
 +    19     790.397892   b          2.6933734  Y                       N     + 
 +    20     796.768538   a          3.6171007  Y                       Y     + 
 +    21     796.768538   a          3.6171007  Y                       Y     + 
 +    22    1068.126190   a         40.7085003  Y                       Y     + 
 +    23    1068.126190   a         40.7085003  Y                       Y     + 
 +    24    1084.545137   c          0.0000000  N                       Y     + 
 +    25    1152.224544   a          1.0419749  Y                       Y     + 
 +    26    1152.224544   a          1.0419749  Y                       Y     + 
 +    27    1240.926922   b         52.7369551  Y                       N     + 
 + .......................................................................... +
 +        Character table from group theory analysis of eigenvectors          +
 +                           Point Group =  19, D3                            +
 + (Due to LO/TO splitting this character table may not contain some symmetry +
 +  operations of the full crystallographic point group.  Additional          +
 +  representations may be also be present corresponding to split LO modes.   +
 +  A conventional analysis can be generated by specifying an additional null +
 +  (all zero) field direction or one along any unique crystallographic axis  +
 +  in %BLOCK PHONON_GAMMA_DIRECTIONS in <seedname>.cell.)                    +
 + .......................................................................... +
 +  Rep  Mul |    E   3  2'                                                   +
 +           | ------------                                                   +
 + a E     9 |    2  -1   0                                                   +
 + b A2    5 |    1   1  -1                                                   +
 + c A1    4 |    1   1   1                                                   +
 + -------------------------------------------------------------------------- +
 +  q-pt=    2 (  0.000000  0.000000  0.008475)     0.0021231423              +
 + -------------------------------------------------------------------------- +
 +  Acoustic sum rule correction <  18.246423 cm-1 applied                    +
 +     N      Frequency irrep.                                                + 
 +                (cm-1)                                                      + 
 +                                                                            +
 +     1       1.645622   a                                                   + 
 +     2       2.926033   b                                                   + 
 +     3       3.249205   c                                                   + 
 +     4     130.330147   a                                                   + 
 +     5     130.385412   b                                                   + 
 +     6     225.251196   c                                                   + 
 +     7     256.964129   b                                                   + 
 +     8     258.356057   b                                                   + 
 +     9     341.105408   c                                                   + 
 +    10     370.204454   c                                                   + 
 +    11     378.273662   a                                                   + 
 +    12     379.575715   a                                                   + 
 +    13     440.968016   a                                                   + 
 +    14     441.971571   a                                                   + 
 +    15     458.811201   c                                                   + 
 +    16     539.123426   c                                                   + 
 +    17     692.206169   a                                                   + 
 +    18     696.915097   d                                                   + 
 +    19     790.400685   c                                                   + 
 +    20     796.587376   a                                                   + 
 +    21     796.943361   a                                                   + 
 +    22    1067.943488   a                                                   + 
 +    23    1068.310606   a                                                   + 
 +    24    1084.543639   c                                                   + 
 +    25    1151.093218   a                                                   + 
 +    26    1153.357595   a                                                   + 
 +    27    1240.927355   c                                                   + 
 + .......................................................................... +
 +        Character table from group theory analysis of eigenvectors          +
 +                           Point Group =  19, D3                            +
 + .......................................................................... +
 +  Rep  Mul |    E   3   3                                                   +
 +           | ------------                                                   +
 + a      13 |    1   0   0                                                   +
 + b       4 |    1  -1  -1                                                   +
 + c       9 |    1   1   1                                                   +
 + d       1 |    1   0  -1                                                   +
 + -------------------------------------------------------------------------- +
 +  q-pt=    3 (  0.000000  0.000000  0.016949)     0.0021231423              +
 + -------------------------------------------------------------------------- +
 +  Acoustic sum rule correction <  15.725158 cm-1 applied                    +
 +     N      Frequency irrep.                                                + 
 +                (cm-1)                                                      + 
 +                                                                            +
 +     1       4.168821   a                                                   + 
 +     2       5.262808   a                                                   + 
 +     3       6.475973   b                                                   + 
 +     4     130.325779   a                                                   + 
 +     5     130.437691   a                                                   + 
 +     6     225.252353   b                                                   + 
 +     7     256.243642   a                                                   + 
 +     8     259.027375   c                                                   + 
 +     9     340.734823   b                                                   + 
 +    10     370.516648   b                                                   + 
 +    11     377.656009   d                                                   + 
 +    12     380.257717   a                                                   + 
 +    13     440.451462   a                                                   + 
 +    14     442.458551   c                                                   + 
 +    15     458.794158   b                                                   + 
 +    16     539.143078   b                                                   + 
 +    17     689.836181   a                                                   + 
 +    18     699.252151   a                                                   + 
 +    19     790.404814   b                                                   + 
 +    20     796.400093   a                                                   + 
 +    21     797.111639   a                                                   + 
 +    22    1067.762578   d                                                   + 
 +    23    1068.496658   a                                                   + 
 +    24    1084.539146   b                                                   + 
 +    25    1149.963971   c                                                   + 
 +    26    1154.492029   c                                                   + 
 +    27    1240.902179   b                                                   + 
 + .......................................................................... +
 +        Character table from group theory analysis of eigenvectors          +
 +                           Point Group =  19, D3                            +
 + .......................................................................... +
 +  Rep  Mul |    E   3   3                                                   +
 +           | ------------                                                   +
 + a      12 |    1   0   0                                                   +
 + b       9 |    1   1   1                                                   +
 + c       4 |    1  -1  -1                                                   +
 + d       2 |    1  -1   0                                                   +
 + -------------------------------------------------------------------------- +
 +  q-pt=    4 (  0.000000  0.000000  0.025424)     0.0021231423              +
 + -------------------------------------------------------------------------- +
 +  Acoustic sum rule correction <  13.624504 cm-1 applied                    +
 +     N      Frequency irrep.                                                + 
 +                (cm-1)                                                      + 
 +                                                                            +
 +     1       6.685379   a                                                   + 
 +     2       7.530073   a                                                   + 
 +     3       9.703234   b                                                   + 
 +     4     130.336040   c                                                   + 
 +     5     130.507362   c                                                   + 
 +     6     225.254276   b                                                   + 
 +     7     255.506848   a                                                   + 
 +     8     259.682134   c                                                   + 
 +     9     340.134003   b                                                   + 
 +    10     371.020184   b                                                   + 
 +    11     377.062179   c                                                   + 
 +    12     380.958752   c                                                   + 
 +    13     439.925070   c                                                   + 
 +    14     442.935652   c                                                   + 
 +    15     458.765793   b                                                   + 
 +    16     539.175844   b                                                   + 
 +    17     687.457100   a                                                   + 
 +    18     701.576337   a                                                   + 
 +    19     790.411702   b                                                   + 
 +    20     796.206919   c                                                   + 
 +    21     797.273182   c                                                   + 
 +    22    1067.583539   a                                                   + 
 +    23    1068.684267   a                                                   + 
 +    24    1084.531657   b                                                   + 
 +    25    1148.837172   c                                                   + 
 +    26    1155.627515   c                                                   + 
 +    27    1240.860227   b                                                   + 
 + .......................................................................... +
 +        Character table from group theory analysis of eigenvectors          +
 +                           Point Group =  19, D3                            +
 + .......................................................................... +
 +  Rep  Mul |    E   3   3                                                   +
 +           | ------------                                                   +
 + a       7 |    1  -1  -1                                                   +
 + b       9 |    1   1   1                                                   +
 + c      11 |    1   0   0                                                   +
 + -------------------------------------------------------------------------- +
 +  q-pt=    5 (  0.000000  0.000000  0.033898)     0.0021231423              +
 + -------------------------------------------------------------------------- +
 +  Acoustic sum rule correction <  11.889985 cm-1 applied                    +
 +     N      Frequency irrep.                                                + 
 +                (cm-1)                                                      + 
 +                                                                            +
 +     1       9.237165   a                                                   + 
 +     2       9.740057   b                                                   + 
 +     3      12.925578   c                                                   + 
 +     4     130.360298   b                                                   + 
 +     5     130.595177   b                                                   + 
 +     6     225.256956   c                                                   + 
 +     7     254.753749   b                                                   + 
 +     8     260.320205   b                                                   + 
 +     9     339.324605   c                                                   + 
 +    10     371.693462   c                                                   + 
 +    11     376.493322   d                                                   + 
 +    12     381.677601   d                                                   + 
 +    13     439.388852   d                                                   + 
 +    14     443.402862   d                                                   + 
 +    15     458.726170   c                                                   + 
 +    16     539.221749   c                                                   + 
 +    17     685.069866   d                                                   + 
 +    18     703.886706   d                                                   + 
 +    19     790.421355   c                                                   + 
 +    20     796.008096   d                                                   + 
 +    21     797.427808   d                                                   + 
 +    22    1067.406447   d                                                   + 
 +    23    1068.873353   d                                                   + 
 +    24    1084.521172   c                                                   + 
 +    25    1147.713204   b                                                   + 
 +    26    1156.763736   b                                                   + 
 +    27    1240.801509   c                                                   + 
 + .......................................................................... +
 +        Character table from group theory analysis of eigenvectors          +
 +                           Point Group =  19, D3                            +
 + .......................................................................... +
 +  Rep  Mul |    E   3   3                                                   +
 +           | ------------                                                   +
 + a       1 |    1   0  -1                                                   +
 + b       7 |    1  -1  -1                                                   +
 + c       9 |    1   1   1                                                   +
 + d      10 |    1   0   0                                                   +
 + -------------------------------------------------------------------------- +
 +  q-pt=    6 (  0.000000  0.000000  0.042373)     0.0021231423              +
 + -------------------------------------------------------------------------- +
 +  Acoustic sum rule correction <  10.460359 cm-1 applied                    +
 +     N      Frequency irrep.                                                + 
 +                (cm-1)                                                      + 
 +                                                                            +
 +     1      11.829250   a                                                   + 
 +     2      11.894864   b                                                   + 
 +     3      16.140304   c                                                   + 
 +     4     130.397941   a                                                   + 
 +     5     130.701911   b                                                   + 
 +     6     225.260379   c                                                   + 
 +     7     253.984323   a                                                   + 
 +     8     260.941430   a                                                   + 
 +     9     338.331363   c                                                   + 
 +    10     372.511824   c                                                   + 
 +    11     375.950564   a                                                   + 
 +    12     382.413044   a                                                   + 
 +    13     438.842824   a                                                   + 
 +    14     443.860167   a                                                   + 
 +    15     458.675376   c                                                   + 
 +    16     539.280823   c                                                   + 
 +    17     682.675419   d                                                   + 
 +    18     706.182304   e                                                   + 
 +    19     790.433782   c                                                   + 
 +    20     795.803879   a                                                   + 
 +    21     797.575355   b                                                   + 
 +    22    1067.231381   a                                                   + 
 +    23    1069.063839   b                                                   + 
 +    24    1084.507690   c                                                   + 
 +    25    1146.592463   b                                                   + 
 +    26    1157.900387   a                                                   + 
 +    27    1240.726044   c                                                   + 
 + .......................................................................... +
 +        Character table from group theory analysis of eigenvectors          +
 +                           Point Group =  19, D3                            +
 + .......................................................................... +
 +  Rep  Mul |    E   3   3                                                   +
 +           | ------------                                                   +
 + a      11 |    1  -1  -1                                                   +
 + b       5 |    1   0   0                                                   +
 + c       9 |    1   1   1                                                   +
 + d       1 |    1   0  -1                                                   +
 + e       1 |    1  -1   0                                                   +
 + -------------------------------------------------------------------------- +
 +  q-pt=    7 (  0.000000  0.000000  0.050847)     0.0021231423              +
 + -------------------------------------------------------------------------- +
 +  Acoustic sum rule correction <   9.278253 cm-1 applied                    +
 +     N      Frequency irrep.                                                + 
 +                (cm-1)                                                      + 
 +                                                                            +
 +     1      13.994624   a                                                   + 
 +     2      14.462282   a                                                   + 
 +     3      19.345160   b                                                   + 
 +     4     130.448379   c                                                   + 
 +     5     130.828361   a                                                   + 
 +     6     225.264526   b                                                   + 
 +     7     253.198535   c                                                   + 
 +     8     261.545624   c                                                   + 
 +     9     337.179083   b                                                   + 
 +    10     373.450565   b                                                   + 
 +    11     375.434997   c                                                   + 
 +    12     383.163862   a                                                   + 
 +    13     438.287002   c                                                   + 
 +    14     444.307549   c                                                   + 
 +    15     458.613522   b                                                   + 
 +    16     539.353107   b                                                   + 
 +    17     680.274699   a                                                   + 
 +    18     708.462174   a                                                   + 
 +    19     790.448996   b                                                   + 
 +    20     795.594533   a                                                   + 
 +    21     797.715668   d                                                   + 
 +    22    1067.058415   c                                                   + 
 +    23    1069.255644   c                                                   + 
 +    24    1084.491211   b                                                   + 
 +    25    1145.475361   a                                                   + 
 +    26    1159.037172   a                                                   + 
 +    27    1240.633850   b                                                   + 
 + .......................................................................... +
 +        Character table from group theory analysis of eigenvectors          +
 +                           Point Group =  19, D3                            +
 + .......................................................................... +
 +  Rep  Mul |    E   3   3                                                   +
 +           | ------------                                                   +
 + a       9 |    1   0   0                                                   +
 + b       9 |    1   1   1                                                   +
 + c       8 |    1  -1  -1                                                   +
 + d       1 |    1   0  -1                                                   +
 + -------------------------------------------------------------------------- +
 +  q-pt=    8 (  0.000000  0.000000  0.059322)     0.0021231423              +
 + -------------------------------------------------------------------------- +
 +  Acoustic sum rule correction <  14.975887 cm-1 applied                    +
 +     N      Frequency irrep.                                                + 
 +                (cm-1)                                                      + 
 +                                                                            +
 +     1      16.038885   a                                                   + 
 +     2      17.135770   a                                                   + 
 +     3      22.538024   b                                                   + 
 +     4     130.511040   a                                                   + 
 +     5     130.975347   a                                                   + 
 +     6     225.269366   b                                                   + 
 +     7     252.396330   c                                                   + 
 +     8     262.132573   d                                                   + 
 +     9     335.890694   b                                                   + 
 +    10     374.486885   b                                                   + 
 +    11     374.947673   a                                                   + 
 +    12     383.928843   e                                                   + 
 +    13     437.721407   d                                                   + 
 +    14     444.744989   d                                                   + 
 +    15     458.540745   b                                                   + 
 +    16     539.438654   b                                                   + 
 +    17     677.868650   e                                                   + 
 +    18     710.725352   c                                                   + 
 +    19     790.467010   b                                                   + 
 +    20     795.380334   d                                                   + 
 +    21     797.848610   d                                                   + 
 +    22    1066.887625   a                                                   + 
 +    23    1069.448691   a                                                   + 
 +    24    1084.471733   b                                                   + 
 +    25    1144.362326   a                                                   + 
 +    26    1160.173806   a                                                   + 
 +    27    1240.524953   b                                                   + 
 + .......................................................................... +
 +        Character table from group theory analysis of eigenvectors          +
 +                           Point Group =  19, D3                            +
 + .......................................................................... +
 +  Rep  Mul |    E   3   3                                                   +
 +           | ------------                                                   +
 + a       9 |    1  -1  -1                                                   +
 + b       9 |    1   1   1                                                   +
 + c       2 |    1  -1   0                                                   +
 + d       5 |    1   0   0                                                   +
 + e       2 |    1   0  -1                                                   +
 + -------------------------------------------------------------------------- +
 +  q-pt=    9 (  0.000000  0.000000  0.067797)     0.0021231423              +
 + -------------------------------------------------------------------------- +
 +  Acoustic sum rule correction <  12.490816 cm-1 applied                    +
 +     N      Frequency irrep.                                                + 
 +                (cm-1)                                                      + 
 +                                                                            +
 +     1      18.026991   a                                                   + 
 +     2      19.848809   a                                                   + 
 +     3      25.716815   b                                                   + 
 +     4     130.585371   a                                                   + 
 +     5     131.143706   a                                                   + 
 +     6     225.274855   b                                                   + 
 +     7     251.577643   a                                                   + 
 +     8     262.702038   c                                                   + 
 +     9     334.486297   b                                                   + 
 +    10     374.489603   a                                                   + 
 +    11     375.600838   b                                                   + 
 +    12     384.706787   a                                                   + 
 +    13     437.146064   d                                                   + 
 +    14     445.172461   d                                                   + 
 +    15     458.457209   b                                                   + 
 +    16     539.537524   b                                                   + 
 +    17     675.458216   a                                                   + 
 +    18     712.970873   d                                                   + 
 +    19     790.487843   b                                                   + 
 +    20     795.161571   d                                                   + 
 +    21     797.974056   c                                                   + 
 +    22    1066.719086   d                                                   + 
 +    23    1069.642901   c                                                   + 
 +    24    1084.449255   b                                                   + 
 +    25    1143.253801   d                                                   + 
 +    26    1161.310014   a                                                   + 
 +    27    1240.399384   b                                                   + 
 + .......................................................................... +
 +        Character table from group theory analysis of eigenvectors          +
 +                           Point Group =  19, D3                            +
 + .......................................................................... +
 +  Rep  Mul |    E   3   3                                                   +
 +           | ------------                                                   +
 + a       9 |    1  -1  -1                                                   +
 + b       9 |    1   1   1                                                   +
 + c       3 |    1   0  -1                                                   +
 + d       6 |    1   0   0                                                   +
 + -------------------------------------------------------------------------- +
 +  q-pt=   10 (  0.000000  0.000000  0.076271)     0.0021231423              +
 + -------------------------------------------------------------------------- +
 +  Acoustic sum rule correction <   9.639148 cm-1 applied                    +
 +     N      Frequency irrep.                                                + 
 +                (cm-1)                                                      + 
 +                                                                            +
 +     1      19.958217   a                                                   + 
 +     2      22.600304   a                                                   + 
 +     3      28.879472   b                                                   + 
 +     4     130.670836   c                                                   + 
 +     5     131.334288   c                                                   + 
 +     6     225.280934   b                                                   + 
 +     7     250.742400   a                                                   + 
 +     8     263.253756   a                                                   + 
 +     9     332.982948   b                                                   + 
 +    10     374.061748   a                                                   + 
 +    11     376.775555   b                                                   + 
 +    12     385.496500   a                                                   + 
 +    13     436.561003   a                                                   + 
 +    14     445.589938   a                                                   + 
 +    15     458.363100   b                                                   + 
 +    16     539.649792   b                                                   + 
 +    17     673.044343   d                                                   + 
 +    18     715.197761   a                                                   + 
 +    19     790.511513   b                                                   + 
 +    20     794.938541   a                                                   + 
 +    21     798.091895   c                                                   + 
 +    22    1066.552871   a                                                   + 
 +    23    1069.838196   a                                                   + 
 +    24    1084.423777   b                                                   + 
 +    25    1142.150244   a                                                   + 
 +    26    1162.445530   c                                                   + 
 +    27    1240.257175   b                                                   + 
 + .......................................................................... +
 +        Character table from group theory analysis of eigenvectors          +
 +                           Point Group =  19, D3                            +
 + .......................................................................... +
 +  Rep  Mul |    E   3   3                                                   +
 +           | ------------                                                   +
 + a      13 |    1  -1  -1                                                   +
 + b       9 |    1   1   1                                                   +
 + c       4 |    1   0   0                                                   +
 + d       1 |    1   0  -1                                                   +
 + -------------------------------------------------------------------------- +
 +  q-pt=   11 (  0.000000  0.000000  0.084746)     0.0021231423              +
 + -------------------------------------------------------------------------- +
 +  Acoustic sum rule correction <   8.137460 cm-1 applied                    +
 +     N      Frequency irrep.                                                + 
 +                (cm-1)                                                      + 
 +                                                                            +
 +     1      21.831833   a                                                   + 
 +     2      25.389057   b                                                   + 
 +     3      32.023942   c                                                   + 
 +     4     130.766913   a                                                   + 
 +     5     131.547956   d                                                   + 
 +     6     225.287523   c                                                   + 
 +     7     249.890521   b                                                   + 
 +     8     263.787436   e                                                   + 
 +     9     331.394843   c                                                   + 
 +    10     373.665015   d                                                   + 
 +    11     377.997061   c                                                   + 
 +    12     386.296807   a                                                   + 
 +    13     435.966258   a                                                   + 
 +    14     445.997383   a                                                   + 
 +    15     458.258630   c                                                   + 
 +    16     539.775545   c                                                   + 
 +    17     670.627981   b                                                   + 
 +    18     717.405039   b                                                   + 
 +    19     790.538041   c                                                   + 
 +    20     794.711551   a                                                   + 
 +    21     798.202030   a                                                   + 
 +    22    1066.389051   b                                                   + 
 +    23    1070.034498   a                                                   + 
 +    24    1084.395298   c                                                   + 
 +    25    1141.052132   b                                                   + 
 +    26    1163.580098   b                                                   + 
 +    27    1240.098367   c                                                   + 
 + .......................................................................... +
 +        Character table from group theory analysis of eigenvectors          +
 +                           Point Group =  19, D3                            +
 + .......................................................................... +
 +  Rep  Mul |    E   3   3                                                   +
 +           | ------------                                                   +
 + a       8 |    1   0   0                                                   +
 + b       7 |    1  -1  -1                                                   +
 + c       9 |    1   1   1                                                   +
 + d       2 |    1  -1   0                                                   +
 + e       1 |    1   0  -1                                                   +
 + -------------------------------------------------------------------------- +
 +  q-pt=   12 (  0.000000  0.000000  0.093220)     0.0021231423              +
 + -------------------------------------------------------------------------- +
 +  Acoustic sum rule correction <   7.120268 cm-1 applied                    +
 +     N      Frequency irrep.                                                + 
 +                (cm-1)                                                      + 
 +                                                                            +
 +     1      23.647131   a                                                   + 
 +     2      28.213802   b                                                   + 
 +     3      35.148172   c                                                   + 
 +     4     130.873097   d                                                   + 
 +     5     131.785576   e                                                   + 
 +     6     225.294514   c                                                   + 
 +     7     249.021926   a                                                   + 
 +     8     264.302769   e                                                   + 
 +     9     329.733693   c                                                   + 
 +    10     373.300251   d                                                   + 
 +    11     379.253901   c                                                   + 
 +    12     387.106548   d                                                   + 
 +    13     435.361872   d                                                   + 
 +    14     446.394755   e                                                   + 
 +    15     458.144039   c                                                   + 
 +    16     539.914881   c                                                   + 
 +    17     668.210085   d                                                   + 
 +    18     719.591721   d                                                   + 
 +    19     790.567450   c                                                   + 
 +    20     794.480918   d                                                   + 
 +    21     798.304379   d                                                   + 
 +    22    1066.227699   e                                                   + 
 +    23    1070.231730   e                                                   + 
 +    24    1084.363816   c                                                   + 
 +    25    1139.959956   d                                                   + 
 +    26    1164.713470   d                                                   + 
 +    27    1239.923003   c                                                   + 
 + .......................................................................... +
 +        Character table from group theory analysis of eigenvectors          +
 +                           Point Group =  19, D3                            +
 + .......................................................................... +
 +  Rep  Mul |    E   3   3                                                   +
 +           | ------------                                                   +
 + a       2 |    1  -1   0                                                   +
 + b       1 |    1   0  -1                                                   +
 + c       9 |    1   1   1                                                   +
 + d      10 |    1   0   0                                                   +
 + e       5 |    1  -1  -1                                                   +
 + -------------------------------------------------------------------------- +
 +  q-pt=   13 (  0.000000  0.000000  0.101695)     0.0021231423              +
 + -------------------------------------------------------------------------- +
 +  Acoustic sum rule correction <   6.360920 cm-1 applied                    +
 +     N      Frequency irrep.                                                + 
 +                (cm-1)                                                      + 
 +                                                                            +
 +     1      25.403445   a                                                   + 
 +     2      31.073227   b                                                   + 
 +     3      38.250109   c                                                   + 
 +     4     130.988897   a                                                   + 
 +     5     132.048017   d                                                   + 
 +     6     225.301766   c                                                   + 
 +     7     248.136539   a                                                   + 
 +     8     264.799421   b                                                   + 
 +     9     328.009142   c                                                   + 
 +    10     372.968239   a                                                   + 
 +    11     380.536732   c                                                   + 
 +    12     387.924581   a                                                   + 
 +    13     434.747893   a                                                   + 
 +    14     446.782007   a                                                   + 
 +    15     458.019589   c                                                   + 
 +    16     540.067916   c                                                   + 
 +    17     665.791612   a                                                   + 
 +    18     721.756814   e                                                   + 
 +    19     790.599764   c                                                   + 
 +    20     794.246967   d                                                   + 
 +    21     798.398872   d                                                   + 
 +    22    1066.068884   d                                                   + 
 +    23    1070.429815   a                                                   + 
 +    24    1084.329331   c                                                   + 
 +    25    1138.874225   a                                                   + 
 +    26    1165.845405   a                                                   + 
 +    27    1239.731130   c                                                   + 
 + .......................................................................... +
 +        Character table from group theory analysis of eigenvectors          +
 +                           Point Group =  19, D3                            +
 + .......................................................................... +
 +  Rep  Mul |    E   3   3                                                   +
 +           | ------------                                                   +
 + a      11 |    1  -1  -1                                                   +
 + b       2 |    1   0  -1                                                   +
 + c       9 |    1   1   1                                                   +
 + d       4 |    1   0   0                                                   +
 + e       1 |    1  -1   0                                                   +
 + -------------------------------------------------------------------------- +
 +  q-pt=   14 (  0.000000  0.000000  0.110169)     0.0021231423              +
 + -------------------------------------------------------------------------- +
 +  Acoustic sum rule correction <   5.761965 cm-1 applied                    +
 +     N      Frequency irrep.                                                + 
 +                (cm-1)                                                      + 
 +                                                                            +
 +     1      27.100170   a                                                   + 
 +     2      33.965975   b                                                   + 
 +     3      41.327700   c                                                   + 
 +     4     131.113837   b                                                   + 
 +     5     132.336134   b                                                   + 
 +     6     225.309098   c                                                   + 
 +     7     247.234290   d                                                   + 
 +     8     265.277042   b                                                   + 
 +     9     326.229164   c                                                   + 
 +    10     372.669691   b                                                   + 
 +    11     381.837930   c                                                   + 
 +    12     388.749783   e                                                   + 
 +    13     434.124378   d                                                   + 
 +    14     447.159084   d                                                   + 
 +    15     457.885569   c                                                   + 
 +    16     540.234778   c                                                   + 
 +    17     663.373526   d                                                   + 
 +    18     723.899319   d                                                   + 
 +    19     790.635008   c                                                   + 
 +    20     794.010032   d                                                   + 
 +    21     798.485453   d                                                   + 
 +    22    1065.912673   b                                                   + 
 +    23    1070.628677   e                                                   + 
 +    24    1084.291842   c                                                   + 
 +    25    1137.795467   d                                                   + 
 +    26    1166.975669   b                                                   + 
 +    27    1239.522801   c                                                   + 
[...]
 +     2      87.887267   a                                                   + 
 +     3      90.828091   a                                                   + 
 +     4     188.603708   a                                                   + 
 +     5     189.161343   a                                                   + 
 +     6     252.301758   a                                                   + 
 +     7     295.571513   a                                                   + 
 +     8     299.968498   a                                                   + 
 +     9     301.013949   a                                                   + 
 +    10     329.009105   a                                                   + 
 +    11     367.676692   a                                                   + 
 +    12     373.854845   a                                                   + 
 +    13     417.954468   a                                                   + 
 +    14     419.260182   a                                                   + 
 +    15     454.231728   a                                                   + 
 +    16     543.210295   a                                                   + 
 +    17     639.272729   a                                                   + 
 +    18     650.458233   a                                                   + 
 +    19     827.572107   a                                                   + 
 +    20     828.809193   a                                                   + 
 +    21     831.623356   a                                                   + 
 +    22    1073.004879   a                                                   + 
 +    23    1073.445493   a                                                   + 
 +    24    1073.567735   a                                                   + 
 +    25    1153.415178   a                                                   + 
 +    26    1172.785932   a                                                   + 
 +    27    1175.193268   a                                                   + 
 + .......................................................................... +
 +        Character table from group theory analysis of eigenvectors          +
 +                           Point Group =  19, D3                            +
 + .......................................................................... +
 +  Rep  Mul |    E   2                                                       +
 +           | --------                                                       +
 + a      27 |    1   0                                                       +
 + -------------------------------------------------------------------------- +
 +  q-pt=  469 ( -0.318182  0.659091  0.500000)     0.0021231423              +
 + -------------------------------------------------------------------------- +
 +  Acoustic sum rule correction <   0.149829 cm-1 applied                    +
 +     N      Frequency irrep.                                                + 
 +                (cm-1)                                                      + 
 +                                                                            +
 +     1      73.088272   a                                                   + 
 +     2      88.253016   a                                                   + 
 +     3      90.135771   a                                                   + 
 +     4     188.697747   a                                                   + 
 +     5     189.131965   a                                                   + 
 +     6     252.551662   a                                                   + 
 +     7     296.495261   a                                                   + 
 +     8     299.486553   a                                                   + 
 +     9     300.512583   a                                                   + 
 +    10     328.930743   a                                                   + 
 +    11     368.672197   a                                                   + 
 +    12     372.770750   a                                                   + 
 +    13     418.176391   a                                                   + 
 +    14     419.034247   a                                                   + 
 +    15     454.267001   a                                                   + 
 +    16     543.269842   a                                                   + 
 +    17     641.049807   a                                                   + 
 +    18     648.521319   a                                                   + 
 +    19     828.135477   a                                                   + 
 +    20     829.131793   a                                                   + 
 +    21     830.919267   a                                                   + 
 +    22    1073.117511   a                                                   + 
 +    23    1073.413113   a                                                   + 
 +    24    1073.494877   a                                                   + 
 +    25    1153.373341   a                                                   + 
 +    26    1173.167258   a                                                   + 
 +    27    1174.811815   a                                                   + 
 + .......................................................................... +
 +        Character table from group theory analysis of eigenvectors          +
 +                           Point Group =  19, D3                            +
 + .......................................................................... +
 +  Rep  Mul |    E   2                                                       +
 +           | --------                                                       +
 + a      27 |    1   0                                                       +
 + -------------------------------------------------------------------------- +
 +  q-pt=  470 ( -0.325758  0.662879  0.500000)     0.0021231423              +
 + -------------------------------------------------------------------------- +
 +  Acoustic sum rule correction <   0.165380 cm-1 applied                    +
 +     N      Frequency irrep.                                                + 
 +                (cm-1)                                                      + 
 +                                                                            +
 +     1      73.248263   a                                                   + 
 +     2      88.622127   a                                                   + 
 +     3      89.564917   a                                                   + 
 +     4     188.788895   a                                                   + 
 +     5     189.077633   a                                                   + 
 +     6     252.701093   a                                                   + 
 +     7     297.420119   a                                                   + 
 +     8     299.123426   a                                                   + 
 +     9     299.913533   a                                                   + 
 +    10     328.892452   a                                                   + 
 +    11     369.683043   a                                                   + 
 +    12     371.701808   a                                                   + 
 +    13     418.391292   a                                                   + 
 +    14     418.817094   a                                                   + 
 +    15     454.288677   a                                                   + 
 +    16     543.303897   a                                                   + 
 +    17     642.869587   a                                                   + 
 +    18     646.606730   a                                                   + 
 +    19     828.678566   a                                                   + 
 +    20     829.359840   a                                                   + 
 +    21     830.257731   a                                                   + 
 +    22    1073.228497   a                                                   + 
 +    23    1073.381737   a                                                   + 
 +    24    1073.419255   a                                                   + 
 +    25    1153.348314   a                                                   + 
 +    26    1173.565949   a                                                   + 
 +    27    1174.413092   a                                                   + 
 + .......................................................................... +
 +        Character table from group theory analysis of eigenvectors          +
 +                           Point Group =  19, D3                            +
 + .......................................................................... +
 +  Rep  Mul |    E   2                                                       +
 +           | --------                                                       +
 + a      27 |    1   0                                                       +
 + -------------------------------------------------------------------------- +
 +  q-pt=  471 ( -0.333333  0.666667  0.500000)     0.0021231423              +
 + -------------------------------------------------------------------------- +
 +  Acoustic sum rule correction <   0.198466 cm-1 applied                    +
 +     N      Frequency irrep.                                                + 
 +                (cm-1)                                                      + 
 +                                                                            +
 +     1      73.294666   a                                                   + 
 +     2      89.063262   b                                                   + 
 +     3      89.063262   b                                                   + 
 +     4     188.938767   b                                                   + 
 +     5     188.938767   b                                                   + 
 +     6     252.747938   c                                                   + 
 +     7     297.907466   c                                                   + 
 +     8     299.269724   b                                                   + 
 +     9     299.269724   b                                                   + 
 +    10     328.882929   a                                                   + 
 +    11     370.681342   b                                                   + 
 +    12     370.681342   b                                                   + 
 +    13     418.603763   b                                                   + 
 +    14     418.603763   b                                                   + 
 +    15     454.296403   a                                                   + 
 +    16     543.314331   c                                                   + 
 +    17     644.722769   b                                                   + 
 +    18     644.722769   b                                                   + 
 +    19     829.198078   b                                                   + 
 +    20     829.198078   b                                                   + 
 +    21     829.936588   a                                                   + 
 +    22    1073.314657   a                                                   + 
 +    23    1073.357918   b                                                   + 
 +    24    1073.357918   b                                                   + 
 +    25    1153.340266   c                                                   + 
 +    26    1173.989471   b                                                   + 
 +    27    1173.989471   b                                                   + 
 + .......................................................................... +
 +        Character table from group theory analysis of eigenvectors          +
 +                           Point Group =  19, D3                            +
 + .......................................................................... +
 +  Rep  Mul |    E   3   2                                                   +
 +           | ------------                                                   +
 + a       5 |    1  -1  -1                                                   +
 + b       9 |    2   1   0                                                   +
 + c       4 |    1  -1   1                                                   +
 ==============================================================================

 ===============================================================================
        Optical Permittivity (f->infinity)             DC Permittivity (f=0)
        ----------------------------------             ---------------------
         2.49590     0.00000     0.00000         4.68009     0.00000     0.00000
         0.00000     2.49590     0.00000         0.00000     4.68009    -0.00000
         0.00000     0.00000     2.52650         0.00000    -0.00000     4.88648
 ===============================================================================

 ===============================================================================
                                    Polarisabilities (A**3)
                Optical (f->infinity)                       Static  (f=0)
                ---------------------                       -------------
        12.96274     0.00000     0.00000        31.88982     0.00000     0.00000
         0.00000    12.96274     0.00000         0.00000    31.88982    -0.00000
         0.00000     0.00000    13.22789         0.00000    -0.00000    33.67827
 ===============================================================================
 ===================================================
                   Born Effective Charges
                   ----------------------
   O       1        -1.32398     0.44654     0.24808
                     0.50209    -2.02123    -0.73942
                     0.31384    -0.69780    -1.73542
   O       2        -1.43615    -0.56685     0.51632
                    -0.51130    -1.90907     0.58456
                     0.44739     0.62069    -1.73542
   O       3        -2.25769     0.03698    -0.76440
                     0.09254    -1.08753     0.15486
                    -0.76123     0.07711    -1.73542
   O       4        -1.32398    -0.44654    -0.24808
                    -0.50209    -2.02123    -0.73942
                    -0.31384    -0.69780    -1.73542
   O       5        -1.43615     0.56685    -0.51632
                     0.51130    -1.90907     0.58456
                    -0.44739     0.62069    -1.73542
   O       6        -2.25769    -0.03698     0.76440
                    -0.09254    -1.08753     0.15486
                     0.76123     0.07711    -1.73542
   Si      1         3.02466     0.00000     0.00000
                     0.00000     3.66577     0.27455
                     0.00000    -0.31496     3.47084
   Si      2         3.50549     0.27761    -0.23776
                     0.27761     3.18494    -0.13727
                     0.27276     0.15748     3.47084
   Si      3         3.50549    -0.27761     0.23776
                    -0.27761     3.18494    -0.13727
                    -0.27276     0.15748     3.47084
 ===================================================
 
 ***************** Symmetrised Forces *****************
 *                                                    *
 *            Cartesian components (eV/A)             *
 * -------------------------------------------------- *
 *                   x            y            z      *
 *                                                    *
 * O         1     -0.00623      0.01433      0.01062 *
 * O         2     -0.00930     -0.01256      0.01062 *
 * O         3      0.01553     -0.00177      0.01062 *
 * O         4     -0.00623     -0.01433     -0.01062 *
 * O         5     -0.00930      0.01256     -0.01062 *
 * O         6      0.01553      0.00177     -0.01062 *
 * Si        1      0.03655      0.00000      0.00000 *
 * Si        2     -0.01827      0.03165      0.00000 *
 * Si        3     -0.01827     -0.03165     -0.00000 *
 *                                                    *
 ******************************************************
 
 Pseudo atomic calculation performed for O 2s2 2p4
 
 Converged in 38 iterations to a total energy of -422.6994 eV
 
 
 Pseudo atomic calculation performed for Si 3s2 3p2
 
 Converged in 25 iterations to a total energy of -101.9153 eV
 
Charge spilling parameter for spin component 1 = 1.25%
 
     Atomic Populations (Mulliken)
     -----------------------------
Species   Ion     s      p      d      f     Total  Charge (e)
==============================================================
  O        1     1.82   5.36   0.00   0.00   7.18    -1.18
  O        2     1.82   5.36   0.00   0.00   7.18    -1.18
  O        3     1.82   5.36   0.00   0.00   7.18    -1.18
  O        4     1.82   5.36   0.00   0.00   7.18    -1.18
  O        5     1.82   5.36   0.00   0.00   7.18    -1.18
  O        6     1.82   5.36   0.00   0.00   7.18    -1.18
  Si       1     0.54   1.10   0.00   0.00   1.64     2.36
  Si       2     0.54   1.10   0.00   0.00   1.64     2.36
  Si       3     0.54   1.10   0.00   0.00   1.64     2.36
==============================================================
 
            Bond              Population      Length (A)
============================================================
          O 5 -- Si 3              0.53        1.60101
          O 2 -- Si 2              0.53        1.60101
          O 4 -- Si 1              0.53        1.60101
          O 1 -- Si 1              0.53        1.60101
          O 6 -- Si 2              0.53        1.60101
          O 3 -- Si 3              0.53        1.60101
          O 4 -- Si 2              0.54        1.60720
          O 1 -- Si 3              0.54        1.60720
          O 5 -- Si 1              0.54        1.60720
          O 2 -- Si 1              0.54        1.60720
          O 3 -- Si 2              0.54        1.60720
          O 6 -- Si 3              0.54        1.60720
          O 2 -- O 4              -0.19        2.60066
          O 1 -- O 5              -0.19        2.60066
          O 3 -- O 6              -0.19        2.60066
          O 1 -- O 4              -0.09        2.61282
          O 2 -- O 6              -0.09        2.61282
          O 3 -- O 5              -0.09        2.61282
          O 2 -- O 5              -0.10        2.62239
          O 3 -- O 4              -0.10        2.62239
          O 1 -- O 6              -0.10        2.62239
          O 4 -- O 6              -0.09        2.64007
          O 1 -- O 3              -0.09        2.64007
          O 4 -- O 5              -0.09        2.64007
          O 5 -- O 6              -0.09        2.64007
          O 2 -- O 3              -0.09        2.64007
          O 1 -- O 2              -0.09        2.64007
============================================================
 

Writing analysis data to Quartz.castep_bin

Writing model to Quartz.check
 
 A BibTeX formatted list of references used in this run has been written to 
 Quartz.bib
 
Initialisation time =      0.57 s
Calculation time    =      3.49 s
Finalisation time   =      0.16 s
Total time          =      4.22 s
Peak Memory Use     = 416408 kB
  
Overall parallel efficiency rating: Good (75%)                                  
  
Data was distributed by:-
G-vector (12-way); efficiency rating: Very good (84%)                           
  
Parallel notes:
1) Calculation only took 4.1 s, so efficiency estimates may be inaccurate.      
